# vtk DataFile Version 3.0
TPZGeoMesh VTK Visualization
ASCII

DATASET UNSTRUCTURED_GRID
POINTS 128 float
4.0748 4.45709 4.83938 
4.01554 4.42027 4.825 
4.01554 4.42027 4.825 
3.9548 4.38137 4.80795 
3.9548 4.38137 4.80795 
3.89266 4.34046 4.78826 
3.89266 4.34046 4.78826 
3.82922 4.29759 4.76597 
3.82922 4.29759 4.76597 
3.76457 4.25283 4.7411 
3.76457 4.25283 4.7411 
3.6988 4.20624 4.71368 
3.6988 4.20624 4.71368 
3.63202 4.1579 4.68377 
3.63202 4.1579 4.68377 
3.56431 4.10786 4.6514 
3.56431 4.10786 4.6514 
3.49578 4.0562 4.61663 
3.49578 4.0562 4.61663 
3.42653 4.00301 4.57949 
3.42653 4.00301 4.57949 
3.35665 3.94835 4.54005 
3.35665 3.94835 4.54005 
3.28626 3.89231 4.49836 
3.28626 3.89231 4.49836 
3.21544 3.83496 4.45448 
3.21544 3.83496 4.45448 
3.14431 3.7764 4.40849 
3.14431 3.7764 4.40849 
3.07298 3.71671 4.36044 
3.07298 3.71671 4.36044 
3.00153 3.65597 4.3104 
3.00153 3.65597 4.3104 
2.93008 3.59427 4.25845 
2.93008 3.59427 4.25845 
2.85874 3.5317 4.20467 
2.85874 3.5317 4.20467 
2.7876 3.46836 4.14913 
2.7876 3.46836 4.14913 
2.71677 3.40434 4.09191 
2.71677 3.40434 4.09191 
2.64635 3.33973 4.0331 
2.64635 3.33973 4.0331 
2.57645 3.27462 3.97278 
2.57645 3.27462 3.97278 
2.50717 3.20911 3.91104 
2.50717 3.20911 3.91104 
2.43861 3.14329 3.84797 
2.43861 3.14329 3.84797 
2.37086 3.07727 3.78367 
2.37086 3.07727 3.78367 
2.30404 3.01113 3.71822 
2.30404 3.01113 3.71822 
2.23823 2.94498 3.65173 
2.23823 2.94498 3.65173 
2.17353 2.8789 3.58428 
2.17353 2.8789 3.58428 
2.11003 2.81301 3.51598 
2.11003 2.81301 3.51598 
2.04784 2.74738 3.44693 
2.04784 2.74738 3.44693 
1.98703 2.68213 3.37723 
1.98703 2.68213 3.37723 
1.9277 2.61734 3.30697 
1.9277 2.61734 3.30697 
1.86994 2.55311 3.23627 
1.86994 2.55311 3.23627 
1.81383 2.48953 3.16522 
1.81383 2.48953 3.16522 
1.75944 2.42669 3.09394 
1.75944 2.42669 3.09394 
1.70687 2.36469 3.02251 
1.70687 2.36469 3.02251 
1.65618 2.30362 2.95105 
1.65618 2.30362 2.95105 
1.60745 2.24356 2.87967 
1.60745 2.24356 2.87967 
1.56076 2.18461 2.80846 
1.56076 2.18461 2.80846 
1.51616 2.12684 2.73753 
1.51616 2.12684 2.73753 
1.47373 2.07036 2.66698 
1.47373 2.07036 2.66698 
1.43353 2.01522 2.59692 
1.43353 2.01522 2.59692 
1.39561 1.96153 2.52744 
1.39561 1.96153 2.52744 
1.36003 1.90934 2.45866 
1.36003 1.90934 2.45866 
1.32685 1.85875 2.39066 
1.32685 1.85875 2.39066 
1.2961 1.80983 2.32356 
1.2961 1.80983 2.32356 
1.26784 1.76264 2.25744 
1.26784 1.76264 2.25744 
1.24211 1.71726 2.1924 
1.24211 1.71726 2.1924 
1.21895 1.67375 2.12855 
1.21895 1.67375 2.12855 
1.19838 1.63217 2.06596 
1.19838 1.63217 2.06596 
1.18044 1.59259 2.00474 
1.18044 1.59259 2.00474 
1.16516 1.55506 1.94497 
1.16516 1.55506 1.94497 
1.15255 1.51964 1.88673 
1.15255 1.51964 1.88673 
1.14264 1.48638 1.83013 
1.14264 1.48638 1.83013 
1.13544 1.45533 1.77522 
1.13544 1.45533 1.77522 
1.13095 1.42653 1.72211 
1.13095 1.42653 1.72211 
1.1292 1.40003 1.67086 
1.1292 1.40003 1.67086 
1.13017 1.37586 1.62155 
1.13017 1.37586 1.62155 
1.13388 1.35406 1.57425 
1.13388 1.35406 1.57425 
1.1403 1.33467 1.52903 
1.1403 1.33467 1.52903 
1.14944 1.3177 1.48596 
1.14944 1.3177 1.48596 
1.16128 1.30319 1.4451 
1.16128 1.30319 1.4451 
1.1758 1.29115 1.4065 
1.1758 1.29115 1.4065 
1.19298 1.28161 1.37023 

CELLS 64 192
2 0 1
2 2 3
2 4 5
2 6 7
2 8 9
2 10 11
2 12 13
2 14 15
2 16 17
2 18 19
2 20 21
2 22 23
2 24 25
2 26 27
2 28 29
2 30 31
2 32 33
2 34 35
2 36 37
2 38 39
2 40 41
2 42 43
2 44 45
2 46 47
2 48 49
2 50 51
2 52 53
2 54 55
2 56 57
2 58 59
2 60 61
2 62 63
2 64 65
2 66 67
2 68 69
2 70 71
2 72 73
2 74 75
2 76 77
2 78 79
2 80 81
2 82 83
2 84 85
2 86 87
2 88 89
2 90 91
2 92 93
2 94 95
2 96 97
2 98 99
2 100 101
2 102 103
2 104 105
2 106 107
2 108 109
2 110 111
2 112 113
2 114 115
2 116 117
2 118 119
2 120 121
2 122 123
2 124 125
2 126 127

CELL_TYPES 64
3
3
3
3
3
3
3
3
3
3
3
3
3
3
3
3
3
3
3
3
3
3
3
3
3
3
3
3
3
3
3
3
3
3
3
3
3
3
3
3
3
3
3
3
3
3
3
3
3
3
3
3
3
3
3
3
3
3
3
3
3
3
3
3

CELL_DATA 64
FIELD FieldData 2
material 1 64 int
1
1
1
1
1
1
1
1
1
1
1
1
1
1
1
1
1
1
1
1
1
1
1
1
1
1
1
1
1
1
1
1
1
1
1
1
1
1
1
1
1
1
1
1
1
1
1
1
1
1
1
1
1
1
1
1
1
1
1
1
1
1
1
1
elIndex 1 64 int
63
64
65
66
67
68
69
70
71
72
73
74
75
76
77
78
79
80
81
82
83
84
85
86
87
88
89
90
91
92
93
94
95
96
97
98
99
100
101
102
103
104
105
106
107
108
109
110
111
112
113
114
115
116
117
118
119
120
121
122
123
124
125
126
